# vtk DataFile Version 3.0
Particle data
ASCII
DATASET POLYDATA
POINTS 100 float
0.000000 0.000000 0.000000
0.097127 0.000001 0.000005
0.098398 -0.000002 -0.000007
0.115112 0.000000 0.000002
0.400000 0.000000 0.000000
0.000000 0.100000 0.000000
0.100000 0.100000 0.000000
0.200000 0.100000 0.000000
0.300000 0.100000 0.073909
-0.122354 -0.060229 0.069079
0.000000 0.200000 0.000000
0.100000 0.200000 0.000000
0.200000 0.200000 0.000000
0.300000 0.200000 0.000000
0.400000 0.200000 0.000000
-0.000002 0.102860 0.065709
0.100000 0.300000 0.000000
0.200000 0.300000 0.000000
0.300000 0.300000 0.000000
0.400000 0.300000 0.000000
0.000000 0.076352 0.125495
0.000480 0.001919 0.099519
0.200000 0.400000 0.000000
0.300000 0.400000 0.000000
0.400000 0.400000 0.000000
0.000000 0.000000 0.100000
0.100000 0.000000 0.100000
0.200000 0.000000 0.100000
0.300000 0.000000 0.100000
0.400000 0.000000 0.100000
-0.000521 0.035044 0.102651
0.100000 0.100000 0.100000
0.200000 0.100000 0.100000
0.300000 0.100000 0.100000
0.400000 0.100000 0.100000
0.000538 0.047630 0.097261
-0.043013 -0.007206 0.098433
0.129959 0.129959 0.100000
0.300000 0.200000 0.100000
0.400000 0.200000 0.100000
0.000000 -0.304397 0.099998
0.008189 0.024567 0.100000
-0.008504 -0.066887 0.101469
0.143131 0.143131 0.100000
0.193436 0.145077 0.100000
-0.000018 0.023090 0.100090
-0.111852 -0.447408 0.100000
0.003265 0.006447 0.100041
-0.456369 -0.496069 0.100000
0.337320 0.400000 0.100000
0.000000 0.000000 -2.656600
-1.039745 0.000000 -0.939745
0.200000 0.000000 0.200000
0.011903 0.000000 0.103968
0.053930 0.000000 0.113483
0.000000 0.100000 0.200000
0.100000 0.100000 0.200000
0.200000 0.100000 0.200000
0.300000 0.100000 0.200000
0.400000 0.100000 0.200000
0.000000 0.200000 0.200000
0.100000 0.200000 0.200000
0.200000 0.200000 0.200000
0.300000 0.200000 0.200000
0.400000 0.200000 0.200000
0.000000 0.300000 0.200000
0.100000 0.300000 0.200000
0.200000 0.300000 0.200000
0.300000 0.300000 0.200000
0.400000 0.300000 0.200000
0.000000 0.400000 0.200000
0.100000 0.400000 0.200000
0.200000 0.400000 0.200000
0.300000 0.400000 0.200000
0.400000 0.400000 0.200000
0.000000 0.000000 0.300000
0.100000 0.000000 0.300000
0.200000 0.000000 0.300000
0.300000 0.000000 0.300000
0.400000 0.000000 0.300000
0.000000 0.100000 0.300000
0.100000 0.100000 0.300000
0.200000 0.100000 0.300000
0.300000 0.100000 0.300000
0.400000 0.100000 0.300000
0.000000 0.200000 0.300000
0.100000 0.200000 0.300000
0.200000 0.200000 0.300000
0.300000 0.200000 0.300000
0.400000 0.200000 0.300000
0.000000 0.300000 0.300000
0.100000 0.300000 0.300000
0.200000 0.300000 0.300000
0.300000 0.300000 0.300000
0.400000 0.300000 0.300000
0.000000 0.400000 0.300000
0.100000 0.400000 0.300000
0.200000 0.400000 0.300000
0.300000 0.400000 0.300000
0.400000 0.400000 0.300000
VERTICES 100 200
1 0
1 1
1 2
1 3
1 4
1 5
1 6
1 7
1 8
1 9
1 10
1 11
1 12
1 13
1 14
1 15
1 16
1 17
1 18
1 19
1 20
1 21
1 22
1 23
1 24
1 25
1 26
1 27
1 28
1 29
1 30
1 31
1 32
1 33
1 34
1 35
1 36
1 37
1 38
1 39
1 40
1 41
1 42
1 43
1 44
1 45
1 46
1 47
1 48
1 49
1 50
1 51
1 52
1 53
1 54
1 55
1 56
1 57
1 58
1 59
1 60
1 61
1 62
1 63
1 64
1 65
1 66
1 67
1 68
1 69
1 70
1 71
1 72
1 73
1 74
1 75
1 76
1 77
1 78
1 79
1 80
1 81
1 82
1 83
1 84
1 85
1 86
1 87
1 88
1 89
1 90
1 91
1 92
1 93
1 94
1 95
1 96
1 97
1 98
1 99
POINT_DATA 100
SCALARS mass float 1
LOOKUP_TABLE default
1000.000000
1000.000000
1000.000000
1000.000000
1000.000000
1000.000000
1000.000000
1000.000000
1000.000000
1000.000000
1000.000000
1000.000000
1000.000000
1000.000000
1000.000000
1000.000000
1000.000000
1000.000000
1000.000000
1000.000000
1000.000000
1000.000000
1000.000000
1000.000000
1000.000000
1000000000000.000000
1000.000000
1000.000000
1000.000000
1000.000000
1000.000000
1000.000000
1000.000000
1000.000000
1000.000000
1000.000000
1000.000000
1000.000000
1000.000000
1000.000000
1000.000000
1000.000000
1000.000000
1000.000000
1000.000000
1000.000000
1000.000000
1000.000000
1000.000000
1000.000000
1000.000000
1000.000000
1000.000000
1000.000000
1000.000000
1000.000000
1000.000000
1000.000000
1000.000000
1000.000000
1000.000000
1000.000000
1000.000000
1000.000000
1000.000000
1000.000000
1000.000000
1000.000000
1000.000000
1000.000000
1000.000000
1000.000000
1000.000000
1000.000000
1000.000000
1000.000000
1000.000000
1000.000000
1000.000000
1000.000000
1000.000000
1000.000000
1000.000000
1000.000000
1000.000000
1000.000000
1000.000000
1000.000000
1000.000000
1000.000000
1000.000000
1000.000000
1000.000000
1000.000000
1000.000000
1000.000000
1000.000000
1000.000000
1000.000000
1000.000000
