# vtk DataFile Version 3.0
Particle data
ASCII
DATASET POLYDATA
POINTS 100 float
2.317259 11.536217 -2.880791
0.100000 0.000000 0.000000
0.200000 0.000000 0.000000
0.300000 0.000000 0.000000
-0.530115 5.686913 0.465057
0.000000 0.100000 0.000000
0.100000 0.100000 0.000000
0.200000 0.100000 0.000000
0.300000 0.100000 0.000000
0.400000 0.100000 0.000000
0.000000 0.200000 0.000000
0.100000 0.200000 0.000000
0.200003 0.200007 2.618369
0.300000 0.200000 0.000000
0.400000 0.200000 0.000000
0.000000 0.300000 0.000000
38.782701 0.300000 38.682701
0.200000 0.300000 0.000000
0.300000 0.300000 0.000000
0.400000 0.300000 0.000000
0.000000 0.400000 0.000000
0.100000 0.400000 0.000000
0.200000 0.400000 0.000000
0.300000 0.400000 0.000000
0.517165 0.458582 -0.058582
0.000000 0.000000 0.100000
0.100000 0.000000 0.100000
0.200000 0.000000 0.100000
0.300000 0.000000 0.100000
0.400000 0.000000 0.100000
0.000000 0.100000 0.100000
0.100000 0.100000 0.100000
0.200000 0.100000 0.100000
0.300000 0.100000 0.100000
0.400000 0.100000 0.100000
0.000000 0.200000 0.100000
0.100000 0.200000 0.100000
0.199987 0.199968 2.636465
0.300000 0.200000 0.100000
0.400000 0.200000 0.100000
0.000000 0.300000 0.100000
0.100000 0.300000 0.100000
0.200000 0.300000 0.100000
0.300000 0.300000 0.100000
0.400000 0.300000 0.100000
0.000000 0.400000 0.100000
0.100000 0.400000 0.100000
0.200000 0.400000 0.100000
0.300000 0.400000 0.100000
0.400000 0.400000 0.100000
0.000000 0.000000 0.200000
0.100000 0.000000 0.200000
0.200000 0.000000 0.200000
0.300000 0.000000 0.200000
0.400000 0.000000 0.200000
0.000000 0.100000 0.200000
0.100000 0.100000 0.200000
0.200000 0.100000 0.200000
0.300000 0.100000 0.200000
0.400000 0.100000 0.200000
0.000000 0.200000 0.200000
0.100000 0.200000 0.200000
0.200020 0.200048 2.644700
0.300000 0.200000 0.200000
0.400000 0.200000 0.200000
0.000000 0.300000 0.200000
0.100000 0.300000 0.200000
0.200000 0.300000 0.200000
0.300000 0.300000 0.200000
0.400000 0.300000 0.200000
0.000000 0.400000 0.200000
0.100000 0.400000 0.200000
0.200000 0.400000 0.200000
0.300000 0.400000 0.200000
0.400000 0.400000 0.200000
0.000000 0.000000 0.300000
0.100000 0.000000 0.300000
0.200000 0.000000 0.300000
0.300000 0.000000 0.300000
0.400000 0.000000 0.300000
0.000000 0.100000 0.300000
0.100000 0.100000 0.300000
0.200000 0.100000 0.300000
0.300000 0.100000 0.300000
0.400000 0.100000 0.300000
0.000000 0.200000 0.300000
0.100000 0.200000 0.300000
0.199990 0.199976 2.664198
0.300000 0.200000 0.300000
0.400000 0.200000 0.300000
0.000000 0.300000 0.300000
0.100000 0.300000 0.300000
0.200000 0.300000 0.300000
0.300000 0.300000 0.300000
0.400000 0.300000 0.300000
0.000000 0.400000 0.300000
0.100000 0.400000 0.300000
0.200000 0.400000 0.300000
0.300000 0.400000 0.300000
0.400000 0.400000 0.300000
VERTICES 100 200
1 0
1 1
1 2
1 3
1 4
1 5
1 6
1 7
1 8
1 9
1 10
1 11
1 12
1 13
1 14
1 15
1 16
1 17
1 18
1 19
1 20
1 21
1 22
1 23
1 24
1 25
1 26
1 27
1 28
1 29
1 30
1 31
1 32
1 33
1 34
1 35
1 36
1 37
1 38
1 39
1 40
1 41
1 42
1 43
1 44
1 45
1 46
1 47
1 48
1 49
1 50
1 51
1 52
1 53
1 54
1 55
1 56
1 57
1 58
1 59
1 60
1 61
1 62
1 63
1 64
1 65
1 66
1 67
1 68
1 69
1 70
1 71
1 72
1 73
1 74
1 75
1 76
1 77
1 78
1 79
1 80
1 81
1 82
1 83
1 84
1 85
1 86
1 87
1 88
1 89
1 90
1 91
1 92
1 93
1 94
1 95
1 96
1 97
1 98
1 99
POINT_DATA 100
SCALARS mass float 1
LOOKUP_TABLE default
1000.000000
1000.000000
1000.000000
1000.000000
1000.000000
1000.000000
1000.000000
1000.000000
1000.000000
1000.000000
1000.000000
1000.000000
1000.000000
1000.000000
1000.000000
1000.000000
1000.000000
1000.000000
1000.000000
1000.000000
1000.000000
1000.000000
1000.000000
1000.000000
1000.000000
1000.000000
1000.000000
1000.000000
1000.000000
1000.000000
1000.000000
1000.000000
1000.000000
1000.000000
1000.000000
1000.000000
1000.000000
1000.000000
1000.000000
1000.000000
1000.000000
1000.000000
10000000000000.000000
1000.000000
1000.000000
1000.000000
1000.000000
1000.000000
1000.000000
1000.000000
1000.000000
1000.000000
1000.000000
1000.000000
1000.000000
1000.000000
1000.000000
1000.000000
1000.000000
1000.000000
1000.000000
1000.000000
1000.000000
1000.000000
1000.000000
1000.000000
1000.000000
1000.000000
1000.000000
1000.000000
1000.000000
1000.000000
1000.000000
1000.000000
1000.000000
1000.000000
1000.000000
1000.000000
1000.000000
1000.000000
1000.000000
1000.000000
1000.000000
1000.000000
1000.000000
1000.000000
1000.000000
1000.000000
1000.000000
1000.000000
1000.000000
1000.000000
1000.000000
1000.000000
1000.000000
1000.000000
1000.000000
1000.000000
1000.000000
1000.000000
