# vtk DataFile Version 3.0
Selected particle and its neighbors data
ASCII
DATASET POLYDATA
POINTS 6 float
0.160000 0.080000 0.120000
0.120000 0.000000 0.120000
0.160000 0.000000 0.120000
0.120000 0.040000 0.120000
0.160000 0.040000 0.120000
0.120000 0.080000 0.120000
VERTICES 6 12
1 0
1 1
1 2
1 3
1 4
1 5
POINT_DATA 6
SCALARS color float 1
LOOKUP_TABLE default
1.0
0.0
0.0
0.0
0.0
0.0
