# vtk DataFile Version 3.0
Selected particle and its neighbors data
ASCII
DATASET POLYDATA
POINTS 4 float
0.160000 0.160000 0.120000
0.120000 0.120000 0.120000
0.160000 0.120000 0.120000
0.120000 0.160000 0.120000
VERTICES 4 8
1 0
1 1
1 2
1 3
POINT_DATA 4
SCALARS color float 1
LOOKUP_TABLE default
1.0
0.0
0.0
0.0
