# vtk DataFile Version 3.0
Selected particle and its neighbors data
ASCII
DATASET POLYDATA
POINTS 12 float
0.120000 0.160000 0.040000
0.120000 0.120000 0.000000
0.160000 0.120000 0.000000
0.120000 0.160000 0.000000
0.160000 0.160000 0.000000
0.120000 0.120000 0.040000
0.160000 0.120000 0.040000
0.160000 0.160000 0.040000
0.120000 0.120000 0.080000
0.160000 0.120000 0.080000
0.120000 0.160000 0.080000
0.160000 0.160000 0.080000
VERTICES 12 24
1 0
1 1
1 2
1 3
1 4
1 5
1 6
1 7
1 8
1 9
1 10
1 11
POINT_DATA 12
SCALARS color float 1
LOOKUP_TABLE default
1.0
0.0
0.0
0.0
0.0
0.0
0.0
0.0
0.0
0.0
0.0
0.0
